ITEM: TIMESTEP energy, energy_weight, force_weight, nsims
1        -57652.3345279454952106    1    1   100
ITEM: NUMBER OF ATOMS
15        
ITEM: BOX BOUNDS xy xz yz pp pp pp
    0.0000000000000000     10.0000212275277018      0.0000000000000006
    0.0000000000000000     10.0000212275277001      0.0000000000000006
    0.0000000000000000     10.0000212275277001      0.0000000000000006
ITEM: ATOMS id type x y z
1      1          5.9377396043264374     7.9208308139298600     5.6907470800234847
2      1          2.2821998445357581     1.6352214711635391     3.4869494019157896
3      1          7.1389611542173972     7.9554128873388956     0.2495595297520585
4      1          7.5906621130648224     4.8515822986879016     4.5488206560011504
5      1          3.9991254891366892     3.7649259919901130     7.3917786908853840
6      1          0.7995286971981540     6.4170906218679766     3.9504303857692431
7      1          1.3727669140385834     4.1405677893830868     9.9274660735113738
8      1          3.9786104455884161     8.3856438006108203     8.6263113114873615
9      1          8.4980670392570534     0.5560851804288514     7.2916654783702350
10     1          5.5840228534748180     1.0134301512570942     1.9842422120467109
11     1          7.4913959023476462     4.3606912566497948     8.9682360373074790
12     1          4.2453750118624365     5.1041528348315692     1.9289540946839558
13     1          9.8746729614448867     0.5330781315906784     1.0468362221697731
14     1          9.8264768591366938     6.7422713121447231     7.3872606812947863
15     1          0.6379523542122523     3.4842463961779888     6.0313158029651497
ITEM: TIMESTEP energy, energy_weight, force_weight, nsims
2        -61498.2124720452848123    1    1   100
ITEM: NUMBER OF ATOMS
16        
ITEM: BOX BOUNDS xy xz yz pp pp pp
    0.0000000000000000     10.0000212275277018      0.0000000000000006
    0.0000000000000000     10.0000212275277001      0.0000000000000006
    0.0000000000000000     10.0000212275277001      0.0000000000000006
ITEM: ATOMS id type x y z
1      1          3.6768068049352620     0.3919308319704931     9.5154041988077438
2      1          0.5047090713703051     8.5848372234483126     0.1858173944435515
3      1          3.9111713024320918     5.2186660779143565     0.9333149811927561
4      1          6.6298190734369280     4.0607536199576968     6.3314634401030254
5      1          2.3919640775375930     8.4976860384482862     4.0981556993528958
6      1          5.4519655731504555     9.9596841419022208     5.1712619772873847
7      1          2.0910564387864250     4.1655278423669957     6.7115332468955486
8      1          7.7990255553679582     7.5553440380934402     2.9780173215810990
9      1          4.0382965722870381     7.0919310543843341     7.3071195111752569
10     1          9.6029593846653629     4.4058353524793459     1.5838803621792890
11     1          0.7881886731261376     0.6478513752253821     6.9921718426206398
12     1          7.7375424248547500     1.0303231871167569     0.9845540899604853
13     1          7.3776806609588146     8.8299577437774719     7.9176968072771521
14     1          2.6288965804856521     2.3627780155829305     3.0979875762477493
15     1          8.7881226549721099     1.9794392018511293     4.3462192259293166
16     1          9.8998900149743427     6.8991386451345811     6.1894631386721324
ITEM: TIMESTEP energy, energy_weight, force_weight, nsims
3        -69190.6986958853958640    1    1   100
ITEM: NUMBER OF ATOMS
18        
ITEM: BOX BOUNDS xy xz yz pp pp pp
    0.0000000000000000     10.0000212275277018      0.0000000000000006
    0.0000000000000000     10.0000212275277001      0.0000000000000006
    0.0000000000000000     10.0000212275277001      0.0000000000000006
ITEM: ATOMS id type x y z
1      1          5.7650332377142970     0.7911816794795365     5.0584667378514858
2      1          5.8215133576073734     1.2481156494353280     1.4510880802947033
3      1          1.7490347127604002     2.0566873658295353     9.3424708317137402
4      1          4.6464198631796982     7.1074770873846482     5.4064434765185041
5      1          0.6056942857364935     2.3317829497882085     5.3297283136715254
6      1          6.1191979895169091     6.7702423715202409     9.7337636623299169
7      1          3.6152166741949188     3.7975550612534135     3.8617881976041923
8      1          9.8107508257542833     7.5416880091051288     6.4888917742837489
9      1          0.1424773024434464     8.4377579112359573     0.4466919482145576
10     1          2.6618846505110203     9.6639595141532819     3.2286538536193627
11     1          8.8633868147389734     4.2146749466939264     0.7176715234359804
12     1          6.5200458404159889     3.2511479013685638     7.9018647736697307
13     1          2.2417327586343219     5.8034263192131439     9.0029451109861043
14     1          7.6197311747711227     6.5369008761949869     3.5137414587885818
15     1          3.7655589933338156     9.2726606835243679     8.2199754489386141
16     1          7.6457912300900599     9.8033058099503894     8.1609643236728502
17     1          1.1615214656176747     6.3520234837468230     3.4199352596616350
18     1          8.8135087088603115     9.9725431691986994     3.3681561497476191
ITEM: TIMESTEP energy, energy_weight, force_weight, nsims
4        -61497.1702381577633787    1    1   100
ITEM: NUMBER OF ATOMS
16        
ITEM: BOX BOUNDS xy xz yz pp pp pp
    0.0000000000000000     10.0000212275277018      0.0000000000000006
    0.0000000000000000     10.0000212275277001      0.0000000000000006
    0.0000000000000000     10.0000212275277001      0.0000000000000006
ITEM: ATOMS id type x y z
1      1          0.8467377974111895     5.9753406841440633     1.2505476545978629
2      1          7.8152705898520773     6.1392960321799936     7.2091913032983239
3      1          9.3350388159374411     8.9331939629219761     3.7208368984000666
4      1          3.0050633789930705     9.0387491869891452     9.4068079682852836
5      1          1.9795992021907698     2.5409493937959144     9.7733117462805410
6      1          6.3937795723844868     0.8540268128839344     6.5304888625838959
7      1          3.1183066193799625     7.7918565401499436     5.2716321903480798
8      1          1.4720611248151971     3.8360741430197276     5.0985368229101891
9      1          8.2441475002497935     2.8392670270491527     1.1217073811023959
10     1          4.6107407874420021     1.1498304408005720     2.4288011557334368
11     1          8.7709966186178452     9.9014940183792373     8.9852080733348387
12     1          6.7560923414832885     5.9170305603663502     3.5017574333495127
13     1          4.5126685792593921     5.2864942218964313     9.5823873409960925
14     1          4.9942636015643904     4.0800806609841400     6.1487860523249172
15     1          6.2008081627547629     8.3533717321053427     0.8627548314113206
16     1          1.4295830346449050     0.6126503005023618     6.6307320753750014
ITEM: TIMESTEP energy, energy_weight, force_weight, nsims
5        -57651.2689126658515306    1    1   100
ITEM: NUMBER OF ATOMS
15        
ITEM: BOX BOUNDS xy xz yz pp pp pp
    0.0000000000000000     10.0000212275277018      0.0000000000000006
    0.0000000000000000     10.0000212275277001      0.0000000000000006
    0.0000000000000000     10.0000212275277001      0.0000000000000006
ITEM: ATOMS id type x y z
1      1          3.3392670884234148     8.4999200431905155     9.5555182839598487
2      1          8.0846431616622354     9.5787553332862547     9.0555932227447915
3      1          2.0376303253762358     5.0352356885378162     0.5355841369102968
4      1          4.3169721638451657     4.8657003286569251     4.4740224972234888
5      1          2.2575427921950428     1.0511442313145922     2.2818628438203903
6      1          0.6104092957452728     3.2041308015630965     6.9325677160960844
7      1          8.0947571831317582     0.7815216589737448     2.6648606568283326
8      1          9.5778733314139863     5.3869924352288390     3.8023510714341362
9      1          6.0008667383294512     8.6715164074463988     5.0257406683822792
10     1          7.0154798920977610     5.8589684371150783     9.6288944397189553
11     1          5.7544162151770299     2.8933931419452690     7.7779765106861358
12     1          0.1436103048485253     8.4923120270406116     5.7029291058828582
13     1          3.4886574055414510     1.0860973055111698     5.7439511929624230
14     1          5.1698529742964263     3.1775267450893816     1.3172817962576462
15     1          0.2922736204233203     8.0124390083909951     1.5073731997738431
ITEM: TIMESTEP energy, energy_weight, force_weight, nsims
6        -61497.8954920700853108    1    1   100
ITEM: NUMBER OF ATOMS
16        
ITEM: BOX BOUNDS xy xz yz pp pp pp
    0.0000000000000000     10.0000212275277018      0.0000000000000006
    0.0000000000000000     10.0000212275277001      0.0000000000000006
    0.0000000000000000     10.0000212275277001      0.0000000000000006
ITEM: ATOMS id type x y z
1      1          1.3171157959052693     4.9089734205148066     8.8667308218374590
2      1          3.2652169312335722     3.9348043525991083     2.3155809153953681
3      1          5.8863544952487858     3.5812556021041124     7.5479860224742259
4      1          1.5349502583129961     0.5423821513407702     5.9587146488511760
5      1          8.8518757903039660     7.3913916900638776     3.5256294840238662
6      1          7.4274867666846394     3.8949532680052878     3.1916777751284560
7      1          7.4558878269729405     8.0151860142221967     9.0103711267496678
8      1          6.0665038776605753     0.5690942080437422     2.0872174306371774
9      1          3.3851271857728564     8.1644503310727661     3.0944385687140992
10     1          9.0132841329332454     1.6966776016194332     8.2672135492132099
11     1          0.7233715355356712     9.7166636260308437     0.6502863803942851
12     1          5.3048522608659274     9.0613592349845842     6.2024121661596574
13     1          2.7527168433249001     5.6896620777202980     5.6225819353260418
14     1          3.4247192698168840     1.6108884195105959     9.2197285711628183
15     1          4.0393065744310181     7.0359729355993341     9.7964837954689692
16     1          8.9028298984667114     5.0452707098396408     6.1967641541703502
ITEM: TIMESTEP energy, energy_weight, force_weight, nsims
7        -65344.7566912610782310    1    1   100
ITEM: NUMBER OF ATOMS
17        
ITEM: BOX BOUNDS xy xz yz pp pp pp
    0.0000000000000000     10.0000212275277018      0.0000000000000006
    0.0000000000000000     10.0000212275277001      0.0000000000000006
    0.0000000000000000     10.0000212275277001      0.0000000000000006
ITEM: ATOMS id type x y z
1      1          6.9464007454601226     7.4959469120082938     0.1893664019772011
2      1          5.3659763906170674     2.6411286064511645     0.3903568286292802
3      1          9.4140629836858558     4.2672460582891620     8.7869846525564164
4      1          1.0309561884604592     8.4221008780000179     5.4057464750389457
5      1          3.9030022850913251     5.5035836827227076     4.6375268443020579
6      1          4.6830219408766949     9.9213220604691799     4.2566170357264230
7      1          6.7300302861601056     3.5706745796432653     6.1022189534746900
8      1          2.8833791206880228     8.6267693124595812     9.5142641963878045
9      1          9.1953365193846324     5.2830852146599678     4.1405687893852088
10     1          2.0322603139770536     3.4032862243199244     1.8336158923049521
11     1          7.1293091337285874     7.3942746961837740     6.4033525927056001
12     1          9.1639174526898639     0.2402325099531435     8.9464759911163778
13     1          2.6796726882705468     2.3859850648456544     7.2128853111397726
14     1          9.3974079483314075     1.2248416000303801     3.1100096017674832
15     1          4.3641662640263608     5.4421535523220053     8.2708115568508731
16     1          5.8003163126113826     0.4320019170313194     7.6312481992188665
17     1          0.1734243681362764     7.9384668513667274     1.7599967360300159
ITEM: TIMESTEP energy, energy_weight, force_weight, nsims
8        -61497.6521957936129184    1    1   100
ITEM: NUMBER OF ATOMS
16        
ITEM: BOX BOUNDS xy xz yz pp pp pp
    0.0000000000000000     10.0000212275277018      0.0000000000000006
    0.0000000000000000     10.0000212275277001      0.0000000000000006
    0.0000000000000000     10.0000212275277001      0.0000000000000006
ITEM: ATOMS id type x y z
1      1          3.3151010371249714     3.6391867250773031     5.3708944010567654
2      1          8.1433422862657014     6.3694025206381424     6.4896817759607233
3      1          9.9858921975353265     5.8171343483118392     9.4738631106264712
4      1          3.8920732618917597     9.5235292160551097     3.8021270709586390
5      1          5.0665957551073433     4.3994853389998658     8.5759412045643035
6      1          6.9497157524970490     5.3156492837852891     2.3227679306515920
7      1          7.9626329026651703     0.1830263885189485     6.1456080455788102
8      1          0.7886276740580260     1.0689142690359090     8.2318614741696532
9      1          9.4906911463481549     8.5885712313746705     2.3508679903009453
10     1          7.8377126374908936     2.1566145779498513     0.8021867028404308
11     1          9.6595885048747281     3.8805802374949621     4.4302784043657919
12     1          3.1956357835303115     6.4369936641171250     1.8518329309751393
13     1          5.9524606355754806     8.1646333314612303     0.0476061010557684
14     1          2.2563567896774583     2.6671286616427365     1.9044150425937254
15     1          2.6427886099749340     6.8760415961053614     6.6582361337591944
16     1          4.4527394520449413     0.7053354972497022     7.3393785796531379
ITEM: TIMESTEP energy, energy_weight, force_weight, nsims
9        -61497.4812765246315394    1    1   100
ITEM: NUMBER OF ATOMS
16        
ITEM: BOX BOUNDS xy xz yz pp pp pp
    0.0000000000000000     10.0000212275277018      0.0000000000000006
    0.0000000000000000     10.0000212275277001      0.0000000000000006
    0.0000000000000000     10.0000212275277001      0.0000000000000006
ITEM: ATOMS id type x y z
1      1          8.3226146668158361     9.7608707198713756     8.8344327532767899
2      1          5.8966315170643151     2.4070541095699323     4.9607545304330678
3      1          1.9777681983040094     6.2903723528769913     3.3873921905808917
4      1          1.3421808491120673     0.8841428768127568     7.3666536375512202
5      1          7.0431089507472979     9.2710916801937699     3.7835730315730842
6      1          4.1215587490316787     6.9029916533135482     6.1800781187500977
7      1          0.2719685773208254     3.5296384925339819     1.3855209411121725
8      1          5.0697717618492062     8.1354922696020910     9.5459632636769456
9      1          0.0397180843114945     4.1048237135074119     6.3078533899848326
10     1          3.9813444513920220     2.8380440244530258     1.2002395478064163
11     1          2.0925544419663087     9.2795866982265540     1.1729254898255472
12     1          7.6549392495090025     5.2638361737990991     3.7955490569951715
13     1          0.7278285449967804     7.2495663890044666     8.1463012925469265
14     1          2.0614993760442220     1.9947752344056657     4.0603626191277007
15     1          7.3414705840939369     5.3037252584735857     8.8587978049976606
16     1          3.6829498179753326     3.6957188450807621     7.6937663319291243
ITEM: TIMESTEP energy, energy_weight, force_weight, nsims
10       -65345.2125948014509049    1    1   100
ITEM: NUMBER OF ATOMS
17        
ITEM: BOX BOUNDS xy xz yz pp pp pp
    0.0000000000000000     10.0000212275277018      0.0000000000000006
    0.0000000000000000     10.0000212275277001      0.0000000000000006
    0.0000000000000000     10.0000212275277001      0.0000000000000006
ITEM: ATOMS id type x y z
1      1          4.8619463206881113     0.8269607554295080     5.6454709839137305
2      1          8.3905528110314140     7.4017897121362610     2.7452338274403414
3      1          6.2694053083692349     5.8553604294561863     0.0506131074388860
4      1          7.4669808505206374     6.6602591380535232     6.2911903546134038
5      1          8.7369995464506189     3.0257044228088108     7.9196668114589750
6      1          9.3624438741114808     7.4633858428893411     9.3463518399521437
7      1          2.7605348599205812     9.2344526024182301     9.8849949833559396
8      1          1.6667195380260058     5.7745692579568670     5.9227445724957599
9      1          2.3338659542099025     2.4229821433811383     2.1412005452297400
10     1          3.4494913224017161     3.1834647576942876     8.6747774143686964
11     1          8.7128274951394395     0.7527355978681837     1.3263748155598372
12     1          9.6409534653172315     9.6544824940359533     6.4955357883873184
13     1          6.9846828267233452     4.2056699275785379     3.4407603038679615
14     1          2.1846286374166475     6.0162087708967240     1.3380998404491133
15     1          2.0334843165753029     8.7306065328798610     3.8362161433211583
16     1          6.3567574937959339     9.9057300273712183     8.7606675966919330
17     1          5.3677153943085347     9.6770665419762025     2.3364109596123086
ITEM: TIMESTEP energy, energy_weight, force_weight, nsims
11       -61498.2184555591884418    1    1   100
ITEM: NUMBER OF ATOMS
16        
ITEM: BOX BOUNDS xy xz yz pp pp pp
    0.0000000000000000     10.0000212275277018      0.0000000000000006
    0.0000000000000000     10.0000212275277001      0.0000000000000006
    0.0000000000000000     10.0000212275277001      0.0000000000000006
ITEM: ATOMS id type x y z
1      1          8.2281454662815037     5.7957833029889443     1.0212951679525448
2      1          7.8121475832227194     2.8390310265481831     5.4633835973880460
3      1          2.8339220157030391     9.4906031461613516     5.0529857262166775
4      1          1.0745552810103574     0.6095632939494240     9.2317905967674623
5      1          1.2726127014364028     7.2310833497696274     8.1388602767515223
6      1          1.3017717633337509     2.8431840353639752     6.2951193629536997
7      1          6.0381418174550605     9.4084959718684900     2.4007320961498895
8      1          7.2087763024173812     6.7088452411895885     7.5258269754361464
9      1          2.5639054425258272     3.6397617262978859     2.6549796358534126
10     1          4.6150537965974348     5.2505251455431372     0.1737403688070663
11     1          4.3922103235568395     9.3017757453283156     9.1445534115848783
12     1          9.6586555028942005     1.1086053532900890     2.5433373988650478
13     1          7.4402747938304019     1.5396592683090389     9.4970501598467383
14     1          9.0367941828391629     8.5990862536954165     4.9805135723765392
15     1          4.4090833593740468     4.9358604775892596     5.5007916767959815
16     1          1.5642133204311104     7.8658706972633672     2.0886504336790823
ITEM: TIMESTEP energy, energy_weight, force_weight, nsims
12       -61498.0047700436844025    1    1   100
ITEM: NUMBER OF ATOMS
16        
ITEM: BOX BOUNDS xy xz yz pp pp pp
    0.0000000000000000     10.0000212275277018      0.0000000000000006
    0.0000000000000000     10.0000212275277001      0.0000000000000006
    0.0000000000000000     10.0000212275277001      0.0000000000000006
ITEM: ATOMS id type x y z
1      1          0.4330269192071409     3.1024505857215945     7.4965619133137862
2      1          7.5986641300510902     9.1937935161092259     2.4919482897789060
3      1          4.3330481979705402     2.4135221232998973     0.9772480744516534
4      1          4.1580658265270145     7.8606026860807061     3.2505639001288760
5      1          5.9976607315239052     1.6380504771688067     6.0016537400000569
6      1          9.8573809247382442     1.7344426817851917     1.1327894046267419
7      1          8.7801836381195741     9.6053473897344954     7.1400731565778974
8      1          7.8274116156244187     6.3924105694784386     9.3892329309779043
9      1          4.7954651795653849     7.7584004691311268     7.8452926535813603
10     1          2.5407333933373999     4.5673016952317447     4.4330194101842570
11     1          8.6181202940998922     5.4751036222667091     3.4403573030124921
12     1          1.3393248430494855     5.7901872911100201     0.3688347829433952
13     1          2.2625378027981928     9.9935752138444354     6.5966250029742728
14     1          2.4307691599110144     9.2028085352458415     0.2960946285343587
15     1          4.2301799796072075     4.1563648229162125     7.8206036011727171
16     1          0.6814904466326624     6.5886299860028652     6.8249594876709043
ITEM: TIMESTEP energy, energy_weight, force_weight, nsims
13       -61496.9977821251886780    1    1   100
ITEM: NUMBER OF ATOMS
16        
ITEM: BOX BOUNDS xy xz yz pp pp pp
    0.0000000000000000     10.0000212275277018      0.0000000000000006
    0.0000000000000000     10.0000212275277001      0.0000000000000006
    0.0000000000000000     10.0000212275277001      0.0000000000000006
ITEM: ATOMS id type x y z
1      1          4.6205758083192752     0.6436603663289252     4.2647490529886483
2      1          0.5243971131630616     6.8989926448246601     4.4008003417912853
3      1          1.7171976451783202     7.8811307296565740     7.8974847643720727
4      1          8.9487489959413953     5.2835602156682748     1.3836209370789423
5      1          5.8141393419541947     6.3553514908113442     5.6884420751305393
6      1          3.9054392902644732     3.8326771358087366     9.3657898812142104
7      1          5.1153998587061693     7.7539174596148257     9.0471152047480938
8      1          9.6390834613476830     2.3027088880712943     3.4625293500781669
9      1          9.9882192024749727     1.1729464898701250     9.3470228413765106
10     1          6.6848281902074351     1.2284566077041312     7.3488385997343793
11     1          1.2214005927259879     3.3638211405454861     6.4505346928613205
12     1          7.4754038684005835     8.6521583663541524     2.1385495396023226
13     1          3.2742159503362243     4.9136134303643795     3.0259964234286545
14     1          6.5832709746270321     2.4201791374310622     1.3107137823154058
15     1          2.1588545827048176     9.3783189078101810     2.0648893832403532
16     1          8.8110497036404620     5.8212253569960204     7.6253861867752901
ITEM: TIMESTEP energy, energy_weight, force_weight, nsims
14       -65344.4287034597946331    1    1   100
ITEM: NUMBER OF ATOMS
17        
ITEM: BOX BOUNDS xy xz yz pp pp pp
    0.0000000000000000     10.0000212275277018      0.0000000000000006
    0.0000000000000000     10.0000212275277001      0.0000000000000006
    0.0000000000000000     10.0000212275277001      0.0000000000000006
ITEM: ATOMS id type x y z
1      1          6.0605198649580228     5.0836847913830656     2.5966185119674381
2      1          1.7522177195171222     5.0541837287597353     7.6917243275944633
3      1          0.5779802269065233     8.8769638435595883     5.3639703863588259
4      1          3.6876368279246745     0.8524298094938981     0.0569811209565756
5      1          6.8608255638055544     0.0878681865220404     4.4811515123565933
6      1          0.5805992324660127     8.1636043292769180     0.8437207910068444
7      1          0.6181533121838703     4.4575424622405233     3.6444987363533659
8      1          5.2904472302876728     4.0115995156159077     9.1640874530507315
9      1          0.0451700958847426     2.2291527319300917     9.3981689499468235
10     1          5.2510141465811628     6.9499547530043868     5.6860650700847559
11     1          5.4668526047518764     7.7059173577226927     0.0645901371086014
12     1          7.8231166065071944     4.0325005599835624     6.5575409200086030
13     1          2.6925257155542881     1.5456022809245586     4.2390149983617285
14     1          7.9828149455065667     9.3017407452540173     8.1418632831261490
15     1          6.9608607761551289     1.6701125452285059     1.2751947069173504
16     1          8.4288548923370890     5.4709246133957246     9.8986770123994443
17     1          3.4720273702400726     8.2747345651784325     2.9334822270443044
ITEM: TIMESTEP energy, energy_weight, force_weight, nsims
15       -65343.5735724109326839    1    1   100
ITEM: NUMBER OF ATOMS
17        
ITEM: BOX BOUNDS xy xz yz pp pp pp
    0.0000000000000000     10.0000212275277018      0.0000000000000006
    0.0000000000000000     10.0000212275277001      0.0000000000000006
    0.0000000000000000     10.0000212275277001      0.0000000000000006
ITEM: ATOMS id type x y z
1      1          0.2001404248477394     6.6386940922763591     7.0041238679917805
2      1          9.6289244397826383     3.1684717258678550     4.3217841740598528
3      1          2.9343672289229406     9.6877375646280974     3.8793152348096802
4      1          5.3699343990189226     7.5067499349403928     9.9751611747560656
5      1          7.4110527317993204     6.5891819871746238     3.7583629780584866
6      1          8.6336613270895928     0.1312302785688460     2.1266605143649149
7      1          6.6232770595498804     9.6571724997461583     5.3545213663009346
8      1          3.1906447729356526     0.7578816087918693     8.4094298511026171
9      1          5.4076554790912805     4.0511955996684259     8.4670339733816675
10     1          3.0166774036467219     3.2890779818845761     1.7291146704751650
11     1          6.0625068691759321     3.2592999186732436     4.0865256746652818
12     1          8.1964923990900100     1.8075698370157334     8.7049954785140393
13     1          2.1719906105892979     7.0533669725224968     1.6070044112658244
14     1          4.2627770488025796     6.7402263078036935     5.5851318558289513
15     1          8.3737727754116218     5.1926870227673634     0.6152783060809560
16     1          2.5573204285475000     3.5644415664121474     6.2945173616758012
17     1          0.0562371193772475     0.1015122154848792     6.0869389210390272
ITEM: TIMESTEP energy, energy_weight, force_weight, nsims
16       -61497.7754889967982308    1    1   100
ITEM: NUMBER OF ATOMS
16        
ITEM: BOX BOUNDS xy xz yz pp pp pp
    0.0000000000000000     10.0000212275277018      0.0000000000000006
    0.0000000000000000     10.0000212275277001      0.0000000000000006
    0.0000000000000000     10.0000212275277001      0.0000000000000006
ITEM: ATOMS id type x y z
1      1          4.8919683844173951     0.1664733533810219     9.2046325391177426
2      1          0.6835314509652008     1.0370042012988681     6.5745519561187509
3      1          4.7711161278784777     2.1229035063897328     2.8708390940687027
4      1          1.7276686674056643     6.0998799485095709     5.6842220661725227
5      1          0.4664189900901015     1.7377126887265932     2.3879230689595490
6      1          7.9107357925006703     3.9492373832367993     3.6603857700775388
7      1          2.6555106369805945     3.6233946915547910     0.2514405337449565
8      1          0.0256710544931864     7.8890027463668844     8.2373124857407785
9      1          5.4032764697957463     7.5636340556910602     6.5467498971019777
10     1          6.3097113939289073     5.1227268742595795     0.1996404237863630
11     1          6.5849949782866579     8.4113488551761790     2.5133673352461474
12     1          6.4051485965180630     3.3093800249807028     7.1213021167317043
13     1          1.4126669987364189     7.6215051785368866     2.0870384302572047
14     1          9.2313965959310966     3.2937929918933557     9.3747059001406736
15     1          4.2201629583435931     5.7381931807396125     3.1853787617572369
16     1          7.3611816259355169     0.3555097546577146     5.3887444389479029
ITEM: TIMESTEP energy, energy_weight, force_weight, nsims
17       -61497.7381044841604307    1    1   100
ITEM: NUMBER OF ATOMS
16        
ITEM: BOX BOUNDS xy xz yz pp pp pp
    0.0000000000000000     10.0000212275277018      0.0000000000000006
    0.0000000000000000     10.0000212275277001      0.0000000000000006
    0.0000000000000000     10.0000212275277001      0.0000000000000006
ITEM: ATOMS id type x y z
1      1          0.5919052564658556     1.3255368137809702     9.2266485858522671
2      1          6.5790879657475578     4.3253761816847804     7.7248973980125406
3      1          3.2203688360323559     2.3779250477362668     7.0647749967388593
4      1          2.2398307545968459     5.3744294085606965     2.3060398951421837
5      1          5.4995846742338195     8.5480761454137966     5.9481696264667479
6      1          2.4251161479110928     9.8614949334712492     1.9257630879102516
7      1          8.8310027459957467     7.4296587712952586     2.9587002805758842
8      1          6.0846199161163632     2.3988380921293952     3.3940442047014430
9      1          5.1451949219535882     1.5331832545620920     9.9627591484296865
10     1          1.1573824568316009     7.2914184778459150     9.2447076241870594
11     1          7.7796585142566048     8.5925172397510536     8.8483287827745620
12     1          9.1140043467369054     0.4712170002750692     4.8944823897539962
13     1          0.2914426186593128     5.2305741031920974     5.9306875893567836
14     1          5.3011772530648109     6.4828917615472319     0.5845842409251826
15     1          8.8859238625794514     4.2306819806728297     1.2393986309312921
16     1          1.8618779522981910     8.4567949516468026     5.9634656589363741