ITEM: TIMESTEP energy, energy_weight, force_weight, nsims
1        -199944.4130284513230436    1    1   88
ITEM: NUMBER OF ATOMS
52        
ITEM: BOX BOUNDS xy xz yz pp pp pp
   -6.6599068561068142     10.6426540787132993     -5.7964044747763319
   -1.5903743695984427      8.9256853388485613     -0.8635023813304824
    0.0000000000000000     16.3996700907443120     -1.5903743695984427
ITEM: ATOMS id type x y z
1      1          1.5004620351452496     0.5243795304393224     3.8834927664029966
2      1         -0.4657385064656120     1.2308782860044023     7.0568980742855700
3      1          1.2745152962579427     0.0833213387822464     9.3340024694978840
4      1         -0.8540985321865312     0.7658900866513397    12.4153637193152981
5      1          0.8402684032112433    -0.5510393789064991    15.2572641880962543
6      1         -2.2275617762104951     4.8467295876359167     1.5720796472371352
7      1         -0.6203922342104343     3.6647596184502413     4.0254498078319134
8      1         -2.4334141199317831     4.3942741777259471     6.9402769351564384
9      1         -0.6124783566375032     3.1615568410967430     9.3235641543774825
10     1         -2.7403546491543223     3.7561150967965080    12.4248080105447478
11     1         -0.7971198907799159     2.4215688459421756    15.0772309231699246
12     1         -4.2147698527073292     7.8942269764402733     1.3897262837216455
13     1         -2.3713089120554520     6.4816775210468265     4.1383949742422592
14     1         -4.2150774254102039     7.1902899077119384     7.0761729850875286
15     1         -2.8135516311114883     6.1477748919812756     9.3308096732742705
16     1         -4.5962887803864509     6.7250228708220146    12.4148358436729929
17     1         -3.0006729036542419     5.5416480712979492    14.9715844889267622
18     1          3.5087904586612901     1.8643567276700226     1.3771519879276457
19     1          4.9147510469146054     0.5351445750399408     4.2881222174140445
20     1          3.2903010274869371     1.2482502902570862     6.7152518501123479
21     1          4.9375167482543798    -0.0178722089943832     9.4579074410784880
22     1          2.9389401886706650     0.7602899220751207    12.2861714771883896
23     1          4.3577602958472887    -0.4676201277067286    14.7901421366004104
24     1          1.2765203722863723     4.8752135870121851     1.3453857940335026
25     1          1.1719371391856725     4.1932440205677235     6.9976706400721227
26     1          2.6783728960653037     3.0655494586526699     9.5071850579937465
27     1          0.9474995286467269     3.7680444477533381    12.2318428566473738
28     1          2.4935312800262110     2.5383687816598304    15.0578910921780889
29     1         -0.5482180113102322     7.6909959184185714     1.2778177118185674
30     1          1.0313817352989216     6.6172415201706611     4.2063419349423956
31     1         -0.9074852778415807     7.2298124678986495     7.0325732241232632
32     1          1.0411261493733914     5.9734503467027675     9.5419503518072712
33     1         -1.1079045466556858     6.7050955653250321    12.2651852276105746
34     1          0.5206971721280875     5.4782093388655539    14.9303878392534699
35     1          7.1039247698631804     1.7465468040802981     1.3473589420996956
36     1          8.6045581517390985     0.5147149362704427     3.9419911788120516
37     1          6.6047193733816476     1.2439676862558120     6.6115732426083387
38     1          8.4240182964786214     0.0210958689148255     9.4234763266030352
39     1          6.2166658560981949     0.7303776785214892    12.5128004102021428
40     1          7.9482214176432171    -0.3527635406238468    14.8900787869303439
41     1          4.8577777268350291     4.8259945046943598     1.2178357134309392
42     1          6.7324588932268110     3.6693434095619430     4.2162534386859019
43     1          4.5299467319213838     4.3456276701975565     7.0176618014935785
44     1          6.3903156571081121     3.0890016111805223     9.3776533152017265
45     1          4.3997359877991427     3.6653407073629389    12.2435189124371302
46     1          6.1942279485040439     2.6174777579577220    14.8523601566099774
47     1          3.1091864689062105     7.6745508893361443     1.5019232715502568
48     1          4.7134367308924796     6.4001835259698954     4.3097268051938320
49     1          2.8574781215559697     7.2279702244776241     6.8866954289317484
50     1          4.3000643395557692     6.0049813379417714     9.5277924290863591
51     1          2.4752291078070479     6.7177028533466761    12.3927661719099653
52     1          4.0887810494581123     5.4317594751390095    15.0272327985735377
ITEM: TIMESTEP energy, energy_weight, force_weight, nsims
2        -199947.2509850914357230    1    1   88
ITEM: NUMBER OF ATOMS
52        
ITEM: BOX BOUNDS xy xz yz pp pp pp
   -4.9281341844185871     11.3334581123085005     -4.9281341844185871
    0.0000000000000000     10.5731894755415397      0.6908040335952012
    0.0000000000000000     16.4452632208175231      1.1402965286096594
ITEM: ATOMS id type x y z
1      1          2.0720172583192844     1.3754385206209729     4.2254795555067384
2      1          0.2811384786741062     2.6478071935512393     6.6212953071092429
3      1          2.2353490061998893     1.6588428203484371     9.6375575704579841
4      1          0.4618007244564881     3.0512595670211815    12.2543254633886569
5      1          2.5540560537718537     2.1862704069159031    15.0546812677079487
6      1         -1.4075154800142147     5.4232666371841969     1.5498748137673075
7      1          0.5149416248023194     4.4088045933396138     4.1672397595917952
8      1         -1.2153368182532573     5.7973122931692478     6.8977318612113736
9      1          0.3895317819349855     4.9724150752438891     9.7276199663336875
10     1         -1.1158439665984061     6.2339005701132635    12.3421401307229335
11     1          0.9287077943399429     5.1349305315566571    15.0337727095049090
12     1         -2.9756616023038576     8.3824182902157460     1.1491139675138717
13     1         -1.1828320241660510     7.6865749599142745     4.2062440225248716
14     1         -3.0281181799924277     8.8141269102646724     6.8665105712060601
15     1         -1.1190069633905997     7.8779937361740116     9.4424968779725109
16     1         -2.6984353632690863     9.1753598750043590    12.5565512968543231
17     1         -0.7142178725683708     8.3521910241013853    15.0461756585682398
18     1          3.8011899296160832     2.1083150943201439     1.1550472471627544
19     1          5.4259986064862025     1.3522449845872331     4.0792697095079662
20     1          3.8572703310184546     2.5380165098098248     7.0934225988183064
21     1          5.7957946506976219     1.6938816303717850     9.5832097931396252
22     1          4.1731581395249675     2.9660310646280301    12.2628214941396934
23     1          5.8413856522400147     2.2096342254149022    14.8429658858546976
24     1          2.1306146474112722     5.4422403608757266     1.3936268164414940
25     1          2.4855035260546376     5.5931084965647511     6.7807531289051965
26     1          4.0332157525131507     4.8604309404968520     9.3719669451274701
27     1          2.7210690956982857     6.0068469952017702    12.4730788323841608
28     1          4.3405436743441550     5.2800165132847159    15.3033830652809506
29     1          0.2190545561059322     8.5430957601691198     1.2533438644991584
30     1          2.2294700040868083     7.7457651448384457     3.8890003398887303
31     1          0.7122223749286120     8.9855960314538628     6.6826150871145655
32     1          2.3948738767165390     7.9518654623997680     9.7835577561714047
33     1          0.8558183850856512     9.0982634245927532    12.1189487749766069
34     1          2.5830072656621774     8.5060114320318441    14.8686285176346971
35     1          7.1605947743015133     2.0955875443074108     1.2015332959131662
36     1          9.2060469037749204     1.3574981986404859     3.9392357956710726
37     1          7.3770195305845956     2.5059757354404506     6.9363795952328138
38     1          9.5068338504091479     1.6409833825389486     9.5396174820332167
39     1          7.5448052291971424     3.0283374186664491    12.4012717810496724
40     1          9.7177850896995484     1.9997951434757282    15.2726268592588763
41     1          5.6723494417732185     5.2557672259663679     1.5999442441460221
42     1          7.2524813210863082     4.5310439895568990     3.9983312609739445
43     1          5.8167830288062525     5.8210922394427245     6.6997859452051616
44     1          7.6984351336195918     4.8048262657317986     9.5182981173827379
45     1          5.9458890654351233     6.2083603288551661    12.2338905032921197
46     1          7.9596686563702805     5.1319080177983025    15.1674008098518236
47     1          3.9430980148362380     8.5256013653945324     1.1467055348958588
48     1          5.8866148035437300     7.5819619273821539     3.9690820547694168
49     1          4.1686328830106989     8.9885812959229412     6.8980394339142483
50     1          6.1103170066858361     8.0435189350602396     9.3815942900070741
51     1          4.6011790799356200     9.1034006337165465    12.2988085646414529
52     1          6.0748045985559855     8.4398715939942726    14.9686864942211297
ITEM: TIMESTEP energy, energy_weight, force_weight, nsims
3        -199946.2147256020107307    1    1   88
ITEM: NUMBER OF ATOMS
52        
ITEM: BOX BOUNDS xy xz yz pp pp pp
   -6.7011014051951410     10.7084837284888987     -5.8322578694004656
   -1.6002115574830096      8.9808947570555144     -0.8688435357946754
    0.0000000000000000     16.5011094996102265     -1.6002115574830096
ITEM: ATOMS id type x y z
1      1          1.7045314642692033     0.5129449373816011     4.0991154783054853
2      1         -0.5667550681172577     1.3874446942816643     6.7518896018226178
3      1          1.3037214850988466     0.0913412245072646     9.7726768313948646
4      1         -0.7169972365247027     0.8558905538766951    12.3835379495986917
5      1          0.9876241790078198    -0.3652674508271291    15.2456543632207993
6      1         -2.2054122238822886     4.8961157967657289     1.2147307727699852
7      1         -0.4469614023433982     3.4955874770645967     3.9998189212363262
8      1         -2.5925720988439407     4.3414870156226115     6.9838557055007717
9      1         -0.8472380990240761     3.1706460342622109     9.5503376545886205
10     1         -2.8054396217923343     3.7437373122016155    12.2056775308070993
11     1         -1.1211964507951260     2.4728919429976028    15.1354383652936981
12     1         -3.9830901279556814     7.7518745835982328     1.2554005231224132
13     1         -2.3860579192916593     6.5021185022491057     4.1757775133177368
14     1         -4.5741705877105741     7.4085273989633205     6.8550294337019313
15     1         -2.6918718684582177     6.1987889213075560     9.4160511269366243
16     1         -4.7704131896704887     6.9270439867760185    12.1621507569959100
17     1         -2.8870703932546053     5.3642810677399080    15.3604032623101681
18     1          3.4475856279032722     1.7837817397986309     1.1682516699948520
19     1          5.1084436121342067     0.5922765973873654     4.1807976504896533
20     1          3.0519339253449291     1.3660962611205487     6.8818381227162027
21     1          4.7373721631262367    -0.0510419876918423     9.7815070470773744
22     1          2.7212687979896657     0.6855753327201978    12.5459524514603071
23     1          4.3837641093826862    -0.4854348426831130    15.1336468359659211
24     1          1.5239821452133890     4.8837860486007463     1.4761120104019250
25     1          1.1903893184067571     4.2524952324453773     6.9700214153719369
26     1          2.7886679945767749     2.9220689306244254     9.6926116402536984
27     1          0.7975164673759565     3.7037839594106239    12.4687978261965462
28     1          2.4680709836230372     2.5465716652914705    14.8972527742660397
29     1         -0.3870806321820611     7.9483431345648183     1.2290287402442637
30     1          1.2232236712150497     6.6276615529367904     4.1837574753922073
31     1         -0.8300906040296469     7.4275306741878966     6.8943027977761648
32     1          1.0298070381110833     6.0126272859296419     9.6885659751010742
33     1         -1.0259573382106917     6.8227808349535879    12.2514027563277477
34     1          0.5013519328971390     5.4822714248538897    15.1159189411534101
35     1          6.8795283027759684     1.8565116195857820     1.3213005319875339
36     1          8.5512189891466424     0.7098396860005808     4.0855981592950137
37     1          6.6083637944096809     1.3885069758675304     6.7576068612852582
38     1          8.3836633442469761     0.1594536061106911     9.8309556123904187
39     1          6.3458774412569614     0.8235520038650315    12.3219352552538126
40     1          7.8694944271752094    -0.3888378943619061    15.0701947864811334
41     1          5.0979857069249643     4.7938337144330667     1.5343950747909716
42     1          6.8599082188886307     3.5369479246175120     4.1646663906010577
43     1          4.7994952897803191     4.2141192393075926     6.9717851026420190
44     1          6.4970940816836986     3.1435878375770652     9.5805912628183485
45     1          4.3265904439079108     3.8433251400281900    12.1448908229223314
46     1          6.1106655961607022     2.5072351211632395    15.2550810414469868
47     1          3.1003169965269874     7.9412080718565266     1.3146259340795667
48     1          4.7590675511601548     6.4383623318264283     4.2565569603235938
49     1          2.9265504310647978     7.2761030766317072     6.6820499417937862
50     1          4.4669626028628082     5.9377128754618775     9.7093704172887829
51     1          2.6075896764247735     6.6692019030163445    12.3481153562732224
52     1          4.1684582646893160     5.4369713261372627    15.2652594552309147
ITEM: TIMESTEP energy, energy_weight, force_weight, nsims
4        -199947.6520217495854013    1    1   88
ITEM: NUMBER OF ATOMS
52        
ITEM: BOX BOUNDS xy xz yz pp pp pp
   -6.4302624347341997     10.7084837284888987     -5.7351854644017131
   -1.2638902090223603      9.0431860069041363     -0.6950769703324866
    0.0000000000000000     16.5384928163063805     -1.2638902090223603
ITEM: ATOMS id type x y z
1      1          1.4994982680165718     0.7298763299049563     4.1252666664188284
2      1         -0.4140981366290385     1.5087546813514778     7.0755695852417873
3      1          1.4035545372028029     0.1900113352783070     9.5337266546289889
4      1         -0.6660719713055009     0.9775689127867688    12.4718144060628617
5      1          1.0629208823446896    -0.1186403620763014    15.3647648277327811
6      1         -2.0737631957726190     4.8856557498597413     1.1886277728334207
7      1         -0.5184780109241113     3.7898459014397434     4.0857727075797881
8      1         -2.4040802974067059     4.4840619096804586     6.9009056488431506
9      1         -0.5656895739862731     3.1479536863931705     9.8651146046359255
10     1         -2.4756932823409756     4.0327271625823453    12.3438897885939607
11     1         -0.8407316243106463     2.8654617439388872    14.9562961409998074
12     1         -4.0757292206908380     8.0065298226003083     1.4319234522963156
13     1         -2.1533026003627160     6.6364832018323208     4.2565441101431194
14     1         -4.1607331645275831     7.5923246011339849     6.6544959423120114
15     1         -2.6422284087413166     6.3976251180265118     9.8619191930913459
16     1         -4.6162774165793659     7.1567345376618690    12.3675694586627678
17     1         -2.8823500936270872     5.9534436380590288    15.0709154674360608
18     1          3.5038469305643805     1.9077752728908040     1.5182520355702747
19     1          5.3130623900665457     0.6442523648603320     3.9561850625878527
20     1          3.1787105933581361     1.4778425013724490     7.0714768027607589
21     1          5.0658720350715996     0.1711569079775566     9.5450091130853245
22     1          2.9205708137508095     0.9596139981192114    12.4678233541772538
23     1          4.6796437981943253    -0.2709728265075473    15.1133606843906740
24     1          1.4153681364520718     5.0227875216383966     1.5948787325862228
25     1          1.3882703183771308     4.4416402513900506     6.8530119553674842
26     1          3.0647584054581669     3.4318430859740210     9.4434070194694240
27     1          1.1725222133057733     3.9817387173091459    12.1731012524566626
28     1          2.9232522180764238     2.8279285084705341    15.1652968304738458
29     1         -0.5128667654503830     7.9309911075311748     1.4394900668988659
30     1          1.2534633584159296     6.6518691512534138     4.1304806271462295
31     1         -0.6622897348525986     7.5532750443696770     6.8380618412341407
32     1          0.9090860176463366     6.3946213883406706     9.7520704961561329
33     1         -0.7013328665266692     7.0644573916767346    12.5020776519279444
34     1          0.7956606871458094     5.8072107259595303    15.3487545737103162
35     1          6.9741977240260473     2.0013374369233570     1.5407837561833881
36     1          8.6949225573894715     0.7840355572101617     3.9685180232979529
37     1          6.8602187649167572     1.3944683887591800     7.0091598525511909
38     1          8.3877090093995985     0.2948730913411617     9.4015454148780133
39     1          6.6942447630637893     0.9513459778324451    12.5282331234347772
40     1          8.1159533927315000    -0.1413819689704932    15.3377805195853618
41     1          5.2270518487593227     4.8915604077876296     1.3411144394303569
42     1          6.9073457309574637     3.6240368102361944     3.9593151523816901
43     1          4.7847518493829355     4.3917665592729858     6.6522460898806548
44     1          6.6631569639516126     3.3726990594932040     9.5460039312237033
45     1          4.5776037275939272     4.1161012751956143    12.5230309420394779
46     1          6.2343442998312577     2.8923164794331919    15.2756745265052434
47     1          3.2547643864946099     7.9597487405840317     1.4732935374845868
48     1          4.8302875347415890     6.7790645209804037     3.9552512828067283
49     1          2.9626251710493317     7.4991897056021983     6.7099391168162628
50     1          4.7071731681635249     6.2713870867448467     9.7822577117867429
51     1          2.7645771187327934     7.0913431817738513    12.4807902571240810
52     1          4.5172828387513499     5.8438658657621465    15.2423293790231025
ITEM: TIMESTEP energy, energy_weight, force_weight, nsims
5        -199948.1828978564881254    1    1   88
ITEM: NUMBER OF ATOMS
52        
ITEM: BOX BOUNDS xy xz yz pp pp pp
   -5.8885737853285880     10.7084837284888987     -5.5410406544042097
   -0.6162839470582625      9.1634315706913370     -0.3475331309243785
    0.0000000000000000     16.5861884028330770     -0.6162839470582625
ITEM: ATOMS id type x y z
1      1          1.8838375283641400     0.7466865076619381     4.0206876143264054
2      1         -0.0389371176851585     1.6731673862768321     6.9883907483597874
3      1          1.5725451189220860     0.5370840014023607     9.8368731204987814
4      1         -0.4603491487007549     1.6798933849066959    12.2661483384218766
5      1          1.5028500234235889     0.5136956020909681    15.4193331191164127
6      1         -1.7916299875232404     4.9248541545478739     1.5668589140622584
7      1         -0.0708505408928011     3.9589585598735315     4.2295137555156677
8      1         -2.1124775769962252     4.8873862408302644     7.0317868786694868
9      1         -0.1904803668656148     3.6725676584937057     9.7552594826104766
10     1         -2.1419430408235351     4.5778789356257494    12.1957518372391629
11     1         -0.3761793957464594     3.4826891084136320    15.0338073587717282
12     1         -3.6717024130084441     7.9783932816037044     1.5747735543859849
13     1         -1.9349277042327604     7.0342219878693468     4.2387433976412527
14     1         -3.9135192508684344     7.9266091959894771     7.0472563542636628
15     1         -2.1508193029860796     6.6408940262800851     9.8802489046893989
16     1         -4.0321360542805333     7.6483931510879799    12.2502034061501579
17     1         -2.1580464586544368     6.4959621949535977    15.2375973000634826
18     1          3.5423717716259917     2.0654908920923614     1.2791508691838289
19     1          5.1290092551347692     0.8121132015462597     4.2752464769749254
20     1          3.3834343144310144     1.8728988122354884     6.9556656220855242
21     1          5.1095058937200726     0.6330502200319597     9.7851736319060105
22     1          3.3606391651181795     1.6121322415695638    12.1961662555594579
23     1          4.8528631601379892     0.4821462673300941    15.0277966868549271
24     1          1.6416362559382967     5.0706587272982331     1.1373191438967392
25     1          1.5039669182764703     4.7532956784304989     6.7234928446714113
26     1          3.2145037002206100     3.7138188795125902     9.5057378907078380
27     1          1.4290674996859278     4.5576902312524297    12.6879223161874961
28     1          3.1590016290558522     3.4751353439915560    15.1232606775976617
29     1         -0.0300362260100385     8.0093729250302221     1.5914541594898519
30     1          1.7125435517948588     6.9437085291542937     4.2141909861485729
31     1         -0.5108589247512914     7.9513618561278792     7.1083375454509632
32     1          1.5425924190851299     6.6869886944893651     9.7798643656734257
33     1         -0.3953850613135042     7.7863398384783737    12.4197187035721370
34     1          1.1764018969606049     6.5824867434797882    15.0528684598084403
35     1          7.0241613674064300     1.8888673031714114     1.2845318822573943
36     1          8.9224221525044722     0.8146714583089956     4.3438450237396244
37     1          6.9633254004965117     1.8927437742811239     6.9350721370272677
38     1          8.7848020738677981     0.7144025709172899     9.5904602014225233
39     1          6.7933828345737659     1.5882812357611007    12.3861390402963405
40     1          8.4805162253292945     0.5835641750258668    15.3747976061380012
41     1          5.4094076890201332     4.9305125173500084     1.2740621977160509
42     1          6.9169233988042249     3.9870308499677649     4.3841892361867068
43     1          5.1043540421982962     4.6956722566391278     7.0402669269340787
44     1          6.9026768320518421     3.5813624317297927     9.5731606459591507
45     1          5.0863445142637236     4.6128250014253007    12.3415296387802016
46     1          6.8204217559882006     3.6222345724246896    15.0244395772060475
47     1          3.5047721435585220     8.0518192128332071     1.5332128581873465
48     1          5.1942710383696724     6.9412680657125714     3.9049803059433374
49     1          3.2883386955285414     7.9846384693141585     6.9357574799858908
50     1          4.9424021468337491     6.6980216452748271     9.9067309849499523
51     1          3.1494775036277343     7.7330908322900900    12.4861305779594787
52     1          4.8135833709735190     6.6435058254614630    15.3732288132717780
ITEM: TIMESTEP energy, energy_weight, force_weight, nsims
6        -199949.1026770600001328    1    1   88
ITEM: NUMBER OF ATOMS
52        
ITEM: BOX BOUNDS xy xz yz pp pp pp
   -5.6177455233513811     10.7084837284888987     -5.4439789578891897
   -0.3043779414985698      9.2214287185648303     -0.1737665654621911
    0.0000000000000000     16.5975715210364569     -0.3043779414985698
ITEM: ATOMS id type x y z
1      1          1.7179973825577781     1.0270089113128291     4.1893708625626811
2      1         -0.2379425084470233     1.9323351803220932     6.6902526403298079
3      1          1.6861128722562024     0.7537712404967064     9.6864574746549348
4      1         -0.2081097436278261     1.7830546337534667    12.6365066024135313
5      1          1.8203276530672181     0.6287304176958873    15.0509602080080214
6      1         -1.6561269761196877     5.0302213510427132     1.2755656688315307
7      1         -0.1500258570361295     4.0430683453189475     4.1177439565995648
8      1         -1.9028161740761409     5.0172672982763604     6.7427681153826899
9      1         -0.0593121496753543     3.7913943481868828     9.7540879744905791
10     1         -1.7704743070692379     4.7730667519384085    12.3883899635760688
11     1         -0.1284803877744098     3.8302393729119766    15.1999248543066603
12     1         -3.6576228986022268     8.0549225314177235     1.3308096655384321
13     1         -1.9673369302370323     7.1229182168956733     3.9029628276088904
14     1         -3.6597442492288401     8.0459809475044342     7.0301184969045893
15     1         -1.8574175573092120     6.8879044787483927     9.7546137610416483
16     1         -3.7543644114537682     7.8893136888598958    12.3813437812827249
17     1         -1.9173668617664115     6.9469039406988751    15.2371528979887501
18     1          3.3713048149117544     2.1245717385191800     1.4062766337665848
19     1          5.1171903016436362     1.0467146630699944     4.3364101234869352
20     1          3.6598588300047354     1.8054482149264826     6.9826713472003998
21     1          5.4065453113195074     0.8396918305406100     9.6709312440969999
22     1          3.4876139400803639     1.9265108360221683    12.5508665746433135
23     1          5.2366113121837445     0.7090740294139938    15.2173903912678252
24     1          1.7471094664220479     5.1679088931268788     1.2319307393346841
25     1          1.6193786725086323     4.9762538055962482     6.7457921911876157
26     1          3.3791787629973125     3.9471288978986694     9.5600566744205988
27     1          1.6067533701927441     4.7587398715580633    12.4660768004811366
28     1          3.1977738360915922     3.8527614558897341    15.3296538512838101
29     1         -0.2223081222034295     8.1873489954460794     1.1624059087274698
30     1          1.5939117565055401     7.1174333315299423     4.1971152379951242
31     1         -0.1958474589103335     8.1306165195009186     6.9240916578120748
32     1          1.5424328626775754     7.0512259891818143     9.6352912685518426
33     1         -0.3295450199572631     7.9439023263626130    12.6962128242900913
34     1          1.5052251651145678     6.9189119642326045    15.0973418635812262
35     1          7.0714650234286571     1.8933188198573441     1.6109071910310249
36     1          8.8226736974219708     0.9975006135506052     4.0294268078972255
37     1          7.1347960670473141     1.9866561057315990     6.6893467026063780
38     1          8.9788505075117442     0.7756508144507550     9.5851113138001445
39     1          6.9782198305144680     1.7617351134984180    12.5595222420410497
40     1          8.8778438055911462     0.6405290250679364    15.0748743938704841
41     1          5.4986821761677982     5.0128800324927987     1.3480321199189609
42     1          6.9303850336993085     4.1150625522739510     4.1600660259912985
43     1          5.2707189037073539     5.0463772404438849     6.8471629815549830
44     1          7.1564507628430638     3.9016981556805557     9.5724924365744926
45     1          5.1146738079674412     5.0137923953064663    12.4610384588868826
46     1          7.0222424071222855     3.7631989105297716    15.3856859923931282
47     1          3.3641526186294968     8.1511628872307700     1.5417121817226480
48     1          5.4632253156943991     6.9625468937294519     4.3587255327287329
49     1          3.3472599855478053     7.9493722198511261     6.9173431713663804
50     1          5.2644437322424604     7.0757141497721214     9.5248279046506159
51     1          3.2648517781668467     8.0706672150437200    12.2332700808302981
52     1          5.0345422242271587     6.8771585153268529    15.2509422124859260
ITEM: TIMESTEP energy, energy_weight, force_weight, nsims
7        -199949.1836773589020595    1    1   88
ITEM: NUMBER OF ATOMS
52        
ITEM: BOX BOUNDS xy xz yz pp pp pp
   -5.3469065528904371     10.7084837284889005     -5.3469065528904371
    0.0000000000000000      9.2780551805210791      0.0000000000000010
    0.0000000000000000     16.6012766564065117      0.0000000000000018
ITEM: ATOMS id type x y z
1      1          1.7268843532040510     0.9913635815258082     4.2337039851986251
2      1         -0.0737075643515619     2.0059656435908102     6.9297371704337349
3      1          1.8999484421336514     0.8976879075657330     9.8833725693929999
4      1          0.0855018883301196     2.0407103898962653    12.4204040465307592
5      1          1.8428743655575512     1.0863306986235393    15.4407511574217651
6      1         -1.9086073220765076     5.1602223435065691     1.2955991001907878
7      1         -0.1067485908958144     4.1190461082209495     4.3504982046801350
8      1         -1.5852164677180069     5.0371647318922657     6.8922639024742605
9      1         -0.1176369771509419     4.1520678594944895     9.7299167850186343
10     1         -1.7768437131909431     5.2628695851343723    12.2085206332370131
11     1          0.0476848780429611     4.1059721204368369    15.4185417621688767
12     1         -3.6070927764326060     8.3650198740756778     1.4033939099468753
13     1         -1.6437704567453844     7.2208954887694832     4.2096409514123376
14     1         -3.5680250152459601     8.2431958797868958     6.9664758364094341